LAMMPS data file. CGCMM style. atom_style full generated by VMD/TopoTools v1.8 on Thu Jan 26 15:12:24 CST 2023
 36 atoms
 0 bonds
 0 angles
 0 dihedrals
 0 impropers
 2 atom types
 0 bond types
 0 angle types
 0 dihedral types
 0 improper types
 -2.411993 5.191573  xlo xhi
 -0.663176 5.921706  ylo yhi
 -0.052740 7.090222  zlo zhi
 -3.80178299999 0.000000 0.000000 xy xz yz

# Pair Coeffs
#
# 1  H
# 2  O

# Bond Coeffs
#
# 1  

 Masses

 1 17.9991610 # O
 2 1.007940 # H

 Atoms # full

1 1 2 0.000000 2.515435 0.000000 1.403078 # H 
2 1 2 0.000000 -1.257717 2.178430 1.403078 # H 
3 1 2 0.000000 2.544066 4.406451 1.403078 # H 
4 1 2 0.000000 5.088131 0.000000 4.974559 # H 
5 1 2 0.000000 -2.544066 4.406451 4.974559 # H 
6 1 2 0.000000 1.257717 2.178430 4.974559 # H 
7 1 2 0.000000 3.439451 0.000000 0.076044 # H 
8 1 2 0.000000 -1.719725 2.978651 0.076044 # H 
9 1 2 0.000000 2.082058 3.606230 0.076044 # H 
10 1 2 0.000000 4.164116 0.000000 3.647525 # H 
11 1 2 0.000000 -2.082058 3.606230 3.647525 # H 
12 1 2 0.000000 1.719725 2.978651 3.647525 # H 
13 1 2 0.000000 1.710373 5.778530 6.991867 # H 
14 1 2 0.000000 -2.057757 5.176843 6.991867 # H 
15 1 2 0.000000 0.347384 2.214390 6.991867 # H 
16 1 2 0.000000 5.512156 0.806352 6.991867 # H 
17 1 2 0.000000 1.744026 1.408039 6.991867 # H 
18 1 2 0.000000 4.149167 4.370491 6.991867 # H 
19 1 2 0.000000 2.091410 0.806352 3.420386 # H 
20 1 2 0.000000 5.859540 1.408039 3.420386 # H 
21 1 2 0.000000 3.454399 4.370491 3.420386 # H 
22 1 2 0.000000 -1.710373 5.778530 3.420386 # H 
23 1 2 0.000000 2.057757 5.176843 3.420386 # H 
24 1 2 0.000000 -0.347384 2.214390 3.420386 # H 
25 1 1 0.000000 2.483644 0.000000 0.397563 # O 
26 1 1 0.000000 -1.241822 2.150899 0.397563 # O 
27 1 1 0.000000 2.559961 4.433983 0.397563 # O 
28 1 1 0.000000 5.119922 0.000000 3.969044 # O 
29 1 1 0.000000 -2.559961 4.433983 3.969044 # O 
30 1 1 0.000000 1.241822 2.150899 3.969044 # O 
31 1 1 0.000000 5.022954 0.000000 6.639919 # O 
32 1 1 0.000000 -2.511477 4.350006 6.639919 # O 
33 1 1 0.000000 1.290306 2.234876 6.639919 # O 
34 1 1 0.000000 2.580612 0.000000 3.068438 # O 
35 1 1 0.000000 -1.290306 2.234876 3.068438 # O 
36 1 1 0.000000 2.511477 4.350006 3.068438 # O 
